data_NIMS_MatNavi_4295281160_1_2

#
# COPYRIGHT NOTICE
#
# This CIF data is created using data from AtomWork, published 2010/06 by
# National Institute for Materials Science (NIMS), Tsukuba, Japan. Copyright
# 2010 by NIMS and  Materials Phases Data system (MPDS), Vitznau,
# Switzerland. All Rghts Reserved.
#
# DISCLAIMER
#
# The values reported here are taken from the literature and other sources and
# the author does not warrant their correctness nor accept any
# responsibility for errors. Users are advised to consult the primarysources.
#

_chemical_formula_sum 'O2 Ti'
_space_group_crystal_system tetragonal
_symmetry_space_group_name_H-M 'P 42/m n m'
_symmetry_Int_Tables_number 136

loop_
    _symmetry_equiv_pos_site_id
    _symmetry_equiv_pos_as_xyz
1 x,y,z
2 -x,-y,z
3 -y+1/2,x+1/2,z+1/2
4 y+1/2,-x+1/2,z+1/2
5 -x+1/2,y+1/2,-z+1/2
6 x+1/2,-y+1/2,-z+1/2
7 y,x,-z
8 -y,-x,-z
9 -x,-y,-z
10 x,y,-z
11 y+1/2,-x+1/2,-z+1/2
12 -y+1/2,x+1/2,-z+1/2
13 x+1/2,-y+1/2,z+1/2
14 -x+1/2,y+1/2,z+1/2
15 -y,-x,z
16 y,x,z

_cell_length_a 4.595
_cell_length_b 4.595
_cell_length_c 2.959
_cell_angle_alpha 90
_cell_angle_beta 90
_cell_angle_gamma 90
_cell_volume 62.5
_cell_formula_units_Z 2

loop_
    _atom_site_label
    _atom_site_fract_x
    _atom_site_fract_y
    _atom_site_fract_z
    _atom_site_occupancy
    _atom_site_symmetry_multiplicity
    _atom_site_Wyckoff_symbol
    _atom_site_U_iso_or_equiv
    _atom_site_type_symbol
O1 0.3053 0.3053 0 1.0 4 f ? O
Ti 0 0 0 1.0 2 a ? Ti

_publ_section_title 'Molecular Dynamic Simulation in Titanium Dioxide Polymorphs:Rutile, Brookite, and Anatase'
_journal_coden_ASTM JACTAW
_journal_name_full 'J. Am. Ceram. Soc.'
_journal_year 1996
_journal_volume 79
_journal_page_first 1095
_journal_page_last 1099
_journal_language English

loop_
    _publ_author_name
'Kim D.W.'
'Enomoto N.'
'Nakagawa Z.'
'Kawamura K.'
